Program Version,EnergyPlus, Version 23.1.0-87ed9199d4, YMD=2023.09.29 21:35
1,5,Environment Title[],Latitude[deg],Longitude[deg],Time Zone[],Elevation[m]
2,8,Day of Simulation[],Month[],Day of Month[],DST Indicator[1=yes 0=no],Hour[],StartMinute[],EndMinute[],DayType
3,5,Cumulative Day of Simulation[],Month[],Day of Month[],DST Indicator[1=yes 0=no],DayType  ! When Daily Report Variables Requested
4,2,Cumulative Days of Simulation[],Month[]  ! When Monthly Report Variables Requested
5,1,Cumulative Days of Simulation[] ! When Run Period Report Variables Requested
6,1,Calendar Year of Simulation[] ! When Annual Report Variables Requested
7,1,Environment,Site Outdoor Air Drybulb Temperature [C] !TimeStep
8,1,Environment,Site Wind Speed [m/s] !TimeStep
9,1,Environment,Site Wind Direction [deg] !TimeStep
10,1,Environment,Site Diffuse Solar Radiation Rate per Area [W/m2] !TimeStep
205,1,TECHO,Surface Outside Face Incident Solar Radiation Rate per Area [W/m2] !TimeStep
End of Data Dictionary
1,RUN PERIOD 1,  18.85, -99.14,  -6.00,1280.00
2,1, 3, 4, 0, 1, 0.00,10.00,Sunday
7,22.2
8,1.0
9,315.0
10,0.0
205,0.0
2,1, 3, 4, 0, 1,10.00,20.00,Sunday
7,21.7
8,0.9
9,329.0
10,0.0
205,0.0
2,1, 3, 4, 0, 1,20.00,30.00,Sunday
7,22.6
8,0.8
9,330.0
10,0.0
205,0.0
2,1, 3, 4, 0, 1,30.00,40.00,Sunday
7,21.9
8,1.3
9,338.0
10,0.0
205,0.0
2,1, 3, 4, 0, 1,40.00,50.00,Sunday
7,21.6
8,2.1
9,348.0
10,0.0
205,0.0
2,1, 3, 4, 0, 1,50.00,60.00,Sunday
7,21.4
8,2.0
9,346.0
10,0.0
205,0.0
2,1, 3, 4, 0, 2, 0.00,10.00,Sunday
7,21.0
8,2.3
9,337.0
10,0.0
205,0.0
2,1, 3, 4, 0, 2,10.00,20.00,Sunday
7,21.3
8,2.1
9,309.0
10,0.0
205,0.0
2,1, 3, 4, 0, 2,20.00,30.00,Sunday
7,20.5
8,2.4
9,347.0
10,0.0
205,0.0
2,1, 3, 4, 0, 2,30.00,40.00,Sunday
7,20.5
8,2.7
9,334.0
10,0.0
205,0.0
2,1, 3, 4, 0, 2,40.00,50.00,Sunday
7,20.6
8,2.2
9,343.0
10,0.0
205,0.0
2,1, 3, 4, 0, 2,50.00,60.00,Sunday
7,20.3
8,1.8
9,188.0
10,0.0
205,0.0
2,1, 3, 4, 0, 3, 0.00,10.00,Sunday
7,19.7
8,2.0
9,213.0
10,0.0
205,0.0
2,1, 3, 4, 0, 3,10.00,20.00,Sunday
7,19.2
8,2.2
9,343.0
10,0.0
205,0.0
2,1, 3, 4, 0, 3,20.00,30.00,Sunday
7,19.4
8,2.5
9,341.0
10,0.0
205,0.0
2,1, 3, 4, 0, 3,30.00,40.00,Sunday
7,19.6
8,2.1
9,333.0
10,0.0
205,0.0
2,1, 3, 4, 0, 3,40.00,50.00,Sunday
7,18.9
8,2.1
9,209.0
10,0.0
205,0.0
2,1, 3, 4, 0, 3,50.00,60.00,Sunday
7,18.5
8,1.9
9,155.0
10,0.0
205,0.0
2,1, 3, 4, 0, 4, 0.00,10.00,Sunday
7,18.1
8,1.2
9,280.0
10,0.0
205,0.0
2,1, 3, 4, 0, 4,10.00,20.00,Sunday
7,17.9
8,2.0
9,283.0
10,0.0
205,0.0
2,1, 3, 4, 0, 4,20.00,30.00,Sunday
7,18.8
8,1.9
9,277.0
10,0.0
205,0.0
2,1, 3, 4, 0, 4,30.00,40.00,Sunday
7,19.2
8,2.2
9,309.0
10,0.0
205,0.0
2,1, 3, 4, 0, 4,40.00,50.00,Sunday
7,18.5
8,2.5
9,327.0
10,0.0
205,0.0
2,1, 3, 4, 0, 4,50.00,60.00,Sunday
7,18.7
8,2.2
9,312.0
10,0.0
205,0.0
2,1, 3, 4, 0, 5, 0.00,10.00,Sunday
7,17.9
8,2.2
9,319.0
10,0.0
205,0.0
2,1, 3, 4, 0, 5,10.00,20.00,Sunday
7,17.5
8,2.4
9,316.0
10,0.0
205,0.0
2,1, 3, 4, 0, 5,20.00,30.00,Sunday
7,17.5
8,2.2
9,309.0
10,0.0
205,0.0
2,1, 3, 4, 0, 5,30.00,40.00,Sunday
7,17.7
8,2.0
9,332.0
10,0.0
205,0.0
2,1, 3, 4, 0, 5,40.00,50.00,Sunday
7,17.6
8,2.5
9,330.0
10,0.0
205,0.0
2,1, 3, 4, 0, 5,50.00,60.00,Sunday
7,17.4
8,2.3
9,332.0
10,0.0
205,0.0
2,1, 3, 4, 0, 6, 0.00,10.00,Sunday
7,17.3
8,2.7
9,340.0
10,0.0
205,0.0
2,1, 3, 4, 0, 6,10.00,20.00,Sunday
7,17.3
8,2.9
9,346.0
10,0.0
205,0.0
2,1, 3, 4, 0, 6,20.00,30.00,Sunday
7,17.3
8,2.8
9,345.0
10,0.0
205,0.0
2,1, 3, 4, 0, 6,30.00,40.00,Sunday
7,17.1
8,3.2
9,345.0
10,0.0
205,0.0
2,1, 3, 4, 0, 6,40.00,50.00,Sunday
7,16.9
8,3.3
9,343.0
10,0.0
205,0.0
2,1, 3, 4, 0, 6,50.00,60.00,Sunday
7,16.8
8,3.3
9,345.0
10,0.0
205,0.0
2,1, 3, 4, 0, 7, 0.00,10.00,Sunday
7,16.8
8,3.2
9,344.0
10,0.0
205,0.0
2,1, 3, 4, 0, 7,10.00,20.00,Sunday
7,16.7
8,3.1
9,354.0
10,0.0
205,0.0
2,1, 3, 4, 0, 7,20.00,30.00,Sunday
7,16.7
8,2.8
9,352.0
10,0.0
205,0.0
2,1, 3, 4, 0, 7,30.00,40.00,Sunday
7,16.7
8,2.7
9,341.0
10,0.0
205,0.0
2,1, 3, 4, 0, 7,40.00,50.00,Sunday
7,16.5
8,2.3
9,344.0
10,0.0
205,0.0
2,1, 3, 4, 0, 7,50.00,60.00,Sunday
7,16.4
8,2.7
9,344.0
10,0.0
205,0.0
2,1, 3, 4, 0, 8, 0.00,10.00,Sunday
7,16.1
8,2.6
9,329.0
10,0.891
205,1.4953738434927026
2,1, 3, 4, 0, 8,10.00,20.00,Sunday
7,15.9
8,2.4
9,323.0
10,7.444
205,9.838493236482194
2,1, 3, 4, 0, 8,20.00,30.00,Sunday
7,16.1
8,2.2
9,330.0
10,17.28
205,30.24783218594515
2,1, 3, 4, 0, 8,30.00,40.00,Sunday
7,16.2
8,2.3
9,330.0
10,26.78
205,59.599522484739275
2,1, 3, 4, 0, 8,40.00,50.00,Sunday
7,16.6
8,1.8
9,306.0
10,35.4
205,95.87346123248966
2,1, 3, 4, 0, 8,50.00,60.00,Sunday
7,17.1
8,1.5
9,287.0
10,42.56
205,130.9336268531717
2,1, 3, 4, 0, 9, 0.00,10.00,Sunday
7,17.8
8,1.2
9,293.0
10,49.06
205,172.5731923483004
2,1, 3, 4, 0, 9,10.00,20.00,Sunday
7,18.8
8,1.1
9,266.0
10,55.15
205,211.5929100213842
2,1, 3, 4, 0, 9,20.00,30.00,Sunday
7,19.8
8,1.1
9,204.0
10,60.57
205,251.6653455853017
2,1, 3, 4, 0, 9,30.00,40.00,Sunday
7,20.6
8,0.8
9,214.0
10,65.13
205,293.32299242590096
2,1, 3, 4, 0, 9,40.00,50.00,Sunday
7,21.2
8,1.4
9,201.0
10,69.48
205,337.17055753607355
2,1, 3, 4, 0, 9,50.00,60.00,Sunday
7,21.1
8,1.6
9,189.0
10,74.43
205,378.39563700615025
2,1, 3, 4, 0,10, 0.00,10.00,Sunday
7,21.8
8,1.5
9,178.0
10,77.43
205,419.1144381604242
2,1, 3, 4, 0,10,10.00,20.00,Sunday
7,22.3
8,1.4
9,156.0
10,81.8
205,460.6937372864215
2,1, 3, 4, 0,10,20.00,30.00,Sunday
7,22.8
8,1.8
9,225.0
10,85.9
205,500.9316291317923
2,1, 3, 4, 0,10,30.00,40.00,Sunday
7,22.9
8,1.6
9,203.0
10,90.1
205,537.6946919695524
2,1, 3, 4, 0,10,40.00,50.00,Sunday
7,23.1
8,1.3
9,170.0
10,93.1
205,575.5860044944965
2,1, 3, 4, 0,10,50.00,60.00,Sunday
7,23.3
8,1.0
9,162.0
10,95.8
205,615.7053096755897
2,1, 3, 4, 0,11, 0.00,10.00,Sunday
7,23.9
8,1.7
9,131.0
10,94.1
205,639.1141060518077
2,1, 3, 4, 0,11,10.00,20.00,Sunday
7,24.4
8,1.6
9,193.0
10,94.7
205,661.9845091340217
2,1, 3, 4, 0,11,20.00,30.00,Sunday
7,24.4
8,1.6
9,118.0
10,98.2
205,686.5067414089216
2,1, 3, 4, 0,11,30.00,40.00,Sunday
7,25.0
8,1.8
9,97.0
10,101.8
205,709.8393223481875
2,1, 3, 4, 0,11,40.00,50.00,Sunday
7,24.8
8,1.4
9,183.0
10,104.0
205,730.4431848104035
2,1, 3, 4, 0,11,50.00,60.00,Sunday
7,25.4
8,1.2
9,179.0
10,105.2
205,748.6822190155564
2,1, 3, 4, 0,12, 0.00,10.00,Sunday
7,25.3
8,1.8
9,199.0
10,107.7
205,766.8230388493802
2,1, 3, 4, 0,12,10.00,20.00,Sunday
7,25.4
8,1.9
9,167.0
10,111.3
205,784.6350136067147
2,1, 3, 4, 0,12,20.00,30.00,Sunday
7,25.4
8,1.7
9,209.0
10,112.1
205,798.1906428918426
2,1, 3, 4, 0,12,30.00,40.00,Sunday
7,26.2
8,1.4
9,191.0
10,112.3
205,809.6648769774555
2,1, 3, 4, 0,12,40.00,50.00,Sunday
7,25.2
8,1.2
9,157.0
10,114.1
205,821.235970719608
2,1, 3, 4, 0,12,50.00,60.00,Sunday
7,27.0
8,2.0
9,115.0
10,115.2
205,830.5848821987086
2,1, 3, 4, 0,13, 0.00,10.00,Sunday
7,27.0
8,1.7
9,171.0
10,116.1
205,838.1955863439287
2,1, 3, 4, 0,13,10.00,20.00,Sunday
7,27.2
8,2.2
9,146.0
10,116.6
205,843.8552774475027
2,1, 3, 4, 0,13,20.00,30.00,Sunday
7,26.8
8,1.9
9,192.0
10,118.8
205,849.6538899048298
2,1, 3, 4, 0,13,30.00,40.00,Sunday
7,26.2
8,1.5
9,148.0
10,120.5
205,853.3844580916775
2,1, 3, 4, 0,13,40.00,50.00,Sunday
7,28.1
8,1.6
9,165.0
10,120.8
205,854.1430597407867
2,1, 3, 4, 0,13,50.00,60.00,Sunday
7,27.6
8,1.8
9,250.0
10,121.4
205,853.6289658189481
2,1, 3, 4, 0,14, 0.00,10.00,Sunday
7,28.4
8,1.0
9,247.0
10,121.3
205,850.8443585455088
2,1, 3, 4, 0,14,10.00,20.00,Sunday
7,28.9
8,1.4
9,311.0
10,121.6
205,846.8944384773145
2,1, 3, 4, 0,14,20.00,30.00,Sunday
7,27.6
8,2.0
9,227.0
10,123.5
205,842.987555186244
2,1, 3, 4, 0,14,30.00,40.00,Sunday
7,28.4
8,1.5
9,172.0
10,123.5
205,835.635091356677
2,1, 3, 4, 0,14,40.00,50.00,Sunday
7,29.4
8,1.5
9,171.0
10,125.3
205,828.5512047697777
2,1, 3, 4, 0,14,50.00,60.00,Sunday
7,29.0
8,2.2
9,135.0
10,130.6
205,823.4534019353327
2,1, 3, 4, 0,15, 0.00,10.00,Sunday
7,29.3
8,2.3
9,79.0
10,132.7
205,813.6619988042567
2,1, 3, 4, 0,15,10.00,20.00,Sunday
7,28.8
8,2.0
9,146.0
10,134.3
205,801.9000917739675
2,1, 3, 4, 0,15,20.00,30.00,Sunday
7,29.6
8,1.5
9,193.0
10,135.0
205,787.7939237188335
2,1, 3, 4, 0,15,30.00,40.00,Sunday
7,29.3
8,2.9
9,127.0
10,134.5
205,771.072559998184
2,1, 3, 4, 0,15,40.00,50.00,Sunday
7,29.7
8,1.1
9,224.0
10,132.3
205,751.2679300047794
2,1, 3, 4, 0,15,50.00,60.00,Sunday
7,30.4
8,1.5
9,112.0
10,130.5
205,730.5147554563414
2,1, 3, 4, 0,16, 0.00,10.00,Sunday
7,30.4
8,2.3
9,122.0
10,129.0
205,708.7504240639973
2,1, 3, 4, 0,16,10.00,20.00,Sunday
7,30.7
8,1.5
9,212.0
10,125.9
205,684.115446259829
2,1, 3, 4, 0,16,20.00,30.00,Sunday
7,30.8
8,2.7
9,231.0
10,123.5
205,658.9527843239688
2,1, 3, 4, 0,16,30.00,40.00,Sunday
7,29.5
8,2.4
9,153.0
10,121.1
205,632.6082641420663
2,1, 3, 4, 0,16,40.00,50.00,Sunday
7,30.7
8,1.7
9,147.0
10,118.0
205,604.4306869143762
2,1, 3, 4, 0,16,50.00,60.00,Sunday
7,31.5
8,1.9
9,136.0
10,115.2
205,575.4715353048401
2,1, 3, 4, 0,17, 0.00,10.00,Sunday
7,31.5
8,2.1
9,172.0
10,112.8
205,545.8853701710137
2,1, 3, 4, 0,17,10.00,20.00,Sunday
7,32.0
8,1.8
9,238.0
10,110.1
205,515.0300353367414
2,1, 3, 4, 0,17,20.00,30.00,Sunday
7,31.7
8,1.4
9,164.0
10,106.2
205,482.0668721704119
2,1, 3, 4, 0,17,30.00,40.00,Sunday
7,32.4
8,0.9
9,160.0
10,100.8
205,446.76144490051075
2,1, 3, 4, 0,17,40.00,50.00,Sunday
7,32.0
8,1.5
9,156.0
10,97.5
205,412.78429648777797
2,1, 3, 4, 0,17,50.00,60.00,Sunday
7,31.8
8,2.3
9,159.0
10,94.6
205,378.5124869197905
2,1, 3, 4, 0,18, 0.00,10.00,Sunday
7,32.0
8,1.3
9,162.0
10,90.0
205,341.93201399643607
2,1, 3, 4, 0,18,10.00,20.00,Sunday
7,32.6
8,1.7
9,175.0
10,85.1
205,304.54203192029337
2,1, 3, 4, 0,18,20.00,30.00,Sunday
7,31.7
8,2.2
9,216.0
10,80.5
205,267.0625034854984
2,1, 3, 4, 0,18,30.00,40.00,Sunday
7,31.2
8,2.5
9,191.0
10,74.21
205,227.65868746185464
2,1, 3, 4, 0,18,40.00,50.00,Sunday
7,31.1
8,1.8
9,202.0
10,66.44
205,186.761433218129
2,1, 3, 4, 0,18,50.00,60.00,Sunday
7,31.1
8,1.6
9,207.0
10,58.72
205,146.25614691267066
2,1, 3, 4, 0,19, 0.00,10.00,Sunday
7,30.8
8,1.7
9,184.0
10,49.93
205,106.72823826148783
2,1, 3, 4, 0,19,10.00,20.00,Sunday
7,30.1
8,2.0
9,177.0
10,41.03
205,70.42659669804316
2,1, 3, 4, 0,19,20.00,30.00,Sunday
7,30.2
8,1.2
9,206.0
10,29.8
205,38.91331794934726
2,1, 3, 4, 0,19,30.00,40.00,Sunday
7,29.8
8,1.2
9,206.0
10,0.0
205,0.0
2,1, 3, 4, 0,19,40.00,50.00,Sunday
7,29.0
8,0.9
9,241.0
10,0.0
205,0.0
2,1, 3, 4, 0,19,50.00,60.00,Sunday
7,28.3
8,0.2
9,279.0
10,0.0
205,0.0
2,1, 3, 4, 0,20, 0.00,10.00,Sunday
7,27.8
8,0.0
9,255.0
10,0.0
205,0.0
2,1, 3, 4, 0,20,10.00,20.00,Sunday
7,27.1
8,0.0
9,303.0
10,0.0
205,0.0
2,1, 3, 4, 0,20,20.00,30.00,Sunday
7,26.5
8,0.6
9,340.0
10,0.0
205,0.0
2,1, 3, 4, 0,20,30.00,40.00,Sunday
7,25.8
8,2.0
9,346.0
10,0.0
205,0.0
2,1, 3, 4, 0,20,40.00,50.00,Sunday
7,25.4
8,2.6
9,316.0
10,0.0
205,0.0
2,1, 3, 4, 0,20,50.00,60.00,Sunday
7,25.0
8,2.4
9,318.0
10,0.0
205,0.0
2,1, 3, 4, 0,21, 0.00,10.00,Sunday
7,24.7
8,2.3
9,321.0
10,0.0
205,0.0
2,1, 3, 4, 0,21,10.00,20.00,Sunday
7,24.3
8,2.2
9,353.0
10,0.0
205,0.0
2,1, 3, 4, 0,21,20.00,30.00,Sunday
7,24.3
8,2.2
9,316.0
10,0.0
205,0.0
2,1, 3, 4, 0,21,30.00,40.00,Sunday
7,24.2
8,2.8
9,239.0
10,0.0
205,0.0
2,1, 3, 4, 0,21,40.00,50.00,Sunday
7,24.0
8,2.7
9,310.0
10,0.0
205,0.0
2,1, 3, 4, 0,21,50.00,60.00,Sunday
7,24.4
8,3.1
9,348.0
10,0.0
205,0.0
2,1, 3, 4, 0,22, 0.00,10.00,Sunday
7,24.2
8,2.1
9,251.0
10,0.0
205,0.0
2,1, 3, 4, 0,22,10.00,20.00,Sunday
7,24.0
8,1.2
9,110.0
10,0.0
205,0.0
2,1, 3, 4, 0,22,20.00,30.00,Sunday
7,24.0
8,1.6
9,279.0
10,0.0
205,0.0
2,1, 3, 4, 0,22,30.00,40.00,Sunday
7,23.8
8,2.0
9,348.0
10,0.0
205,0.0
2,1, 3, 4, 0,22,40.00,50.00,Sunday
7,23.8
8,2.7
9,355.0
10,0.0
205,0.0
2,1, 3, 4, 0,22,50.00,60.00,Sunday
7,23.5
8,2.1
9,355.0
10,0.0
205,0.0
2,1, 3, 4, 0,23, 0.00,10.00,Sunday
7,23.5
8,2.2
9,284.0
10,0.0
205,0.0
2,1, 3, 4, 0,23,10.00,20.00,Sunday
7,23.4
8,1.5
9,319.0
10,0.0
205,0.0
2,1, 3, 4, 0,23,20.00,30.00,Sunday
7,23.6
8,1.5
9,109.0
10,0.0
205,0.0
2,1, 3, 4, 0,23,30.00,40.00,Sunday
7,23.5
8,0.3
9,273.0
10,0.0
205,0.0
2,1, 3, 4, 0,23,40.00,50.00,Sunday
7,23.1
8,0.1
9,323.0
10,0.0
205,0.0
2,1, 3, 4, 0,23,50.00,60.00,Sunday
7,23.0
8,0.6
9,287.0
10,0.0
205,0.0
2,1, 3, 4, 0,24, 0.00,10.00,Sunday
7,22.6
8,1.3
9,284.0
10,0.0
205,0.0
2,1, 3, 4, 0,24,10.00,20.00,Sunday
7,22.4
8,1.3
9,170.0
10,0.0
205,0.0
2,1, 3, 4, 0,24,20.00,30.00,Sunday
7,22.4
8,0.8
9,115.0
10,0.0
205,0.0
2,1, 3, 4, 0,24,30.00,40.00,Sunday
7,21.9
8,0.3
9,215.0
10,0.0
205,0.0
2,1, 3, 4, 0,24,40.00,50.00,Sunday
7,21.4
8,1.0
9,229.0
10,0.0
205,0.0
2,1, 3, 4, 0,24,50.00,60.00,Sunday
7,21.6
8,1.0
9,50.0
10,0.0
205,0.0
2,2, 3, 5, 0, 1, 0.00,10.00,Monday
7,21.3
8,1.2
9,46.0
10,0.0
205,0.0
2,2, 3, 5, 0, 1,10.00,20.00,Monday
7,20.5
8,0.3
9,73.0
10,0.0
205,0.0
2,2, 3, 5, 0, 1,20.00,30.00,Monday
7,20.7
8,1.1
9,95.0
10,0.0
205,0.0
2,2, 3, 5, 0, 1,30.00,40.00,Monday
7,21.1
8,0.4
9,103.0
10,0.0
205,0.0
2,2, 3, 5, 0, 1,40.00,50.00,Monday
7,20.9
8,1.5
9,15.0
10,0.0
205,0.0
2,2, 3, 5, 0, 1,50.00,60.00,Monday
7,20.6
8,2.1
9,247.0
10,0.0
205,0.0
2,2, 3, 5, 0, 2, 0.00,10.00,Monday
7,20.7
8,2.5
9,339.0
10,0.0
205,0.0
2,2, 3, 5, 0, 2,10.00,20.00,Monday
7,20.8
8,2.4
9,335.0
10,0.0
205,0.0
2,2, 3, 5, 0, 2,20.00,30.00,Monday
7,20.5
8,2.4
9,323.0
10,0.0
205,0.0
2,2, 3, 5, 0, 2,30.00,40.00,Monday
7,21.0
8,1.7
9,323.0
10,0.0
205,0.0
2,2, 3, 5, 0, 2,40.00,50.00,Monday
7,21.1
8,1.8
9,245.0
10,0.0
205,0.0
2,2, 3, 5, 0, 2,50.00,60.00,Monday
7,20.5
8,1.8
9,308.0
10,0.0
205,0.0
2,2, 3, 5, 0, 3, 0.00,10.00,Monday
7,20.1
8,2.0
9,90.0
10,0.0
205,0.0
2,2, 3, 5, 0, 3,10.00,20.00,Monday
7,20.1
8,1.3
9,29.0
10,0.0
205,0.0
2,2, 3, 5, 0, 3,20.00,30.00,Monday
7,20.3
8,1.0
9,33.0
10,0.0
205,0.0
2,2, 3, 5, 0, 3,30.00,40.00,Monday
7,20.3
8,0.8
9,19.0
10,0.0
205,0.0
2,2, 3, 5, 0, 3,40.00,50.00,Monday
7,20.2
8,1.1
9,49.0
10,0.0
205,0.0
2,2, 3, 5, 0, 3,50.00,60.00,Monday
7,20.2
8,0.6
9,36.0
10,0.0
205,0.0
2,2, 3, 5, 0, 4, 0.00,10.00,Monday
7,20.0
8,0.2
9,191.0
10,0.0
205,0.0
2,2, 3, 5, 0, 4,10.00,20.00,Monday
7,19.9
8,0.6
9,277.0
10,0.0
205,0.0
2,2, 3, 5, 0, 4,20.00,30.00,Monday
7,20.2
8,1.3
9,344.0
10,0.0
205,0.0
2,2, 3, 5, 0, 4,30.00,40.00,Monday
7,20.3
8,2.0
9,346.0
10,0.0
205,0.0
2,2, 3, 5, 0, 4,40.00,50.00,Monday
7,19.7
8,2.4
9,344.0
10,0.0
205,0.0
2,2, 3, 5, 0, 4,50.00,60.00,Monday
7,19.7
8,2.3
9,340.0
10,0.0
205,0.0
2,2, 3, 5, 0, 5, 0.00,10.00,Monday
7,20.0
8,2.1
9,343.0
10,0.0
205,0.0
2,2, 3, 5, 0, 5,10.00,20.00,Monday
7,19.1
8,2.5
9,352.0
10,0.0
205,0.0
2,2, 3, 5, 0, 5,20.00,30.00,Monday
7,18.8
8,2.4
9,315.0
10,0.0
205,0.0
2,2, 3, 5, 0, 5,30.00,40.00,Monday
7,19.0
8,2.1
9,347.0
10,0.0
205,0.0
2,2, 3, 5, 0, 5,40.00,50.00,Monday
7,18.8
8,2.0
9,350.0
10,0.0
205,0.0
2,2, 3, 5, 0, 5,50.00,60.00,Monday
7,18.6
8,1.4
9,248.0
10,0.0
205,0.0
2,2, 3, 5, 0, 6, 0.00,10.00,Monday
7,18.8
8,1.3
9,250.0
10,0.0
205,0.0
2,2, 3, 5, 0, 6,10.00,20.00,Monday
7,18.0
8,2.1
9,179.0
10,0.0
205,0.0
2,2, 3, 5, 0, 6,20.00,30.00,Monday
7,18.1
8,1.5
9,344.0
10,0.0
205,0.0
2,2, 3, 5, 0, 6,30.00,40.00,Monday
7,18.4
8,1.6
9,339.0
10,0.0
205,0.0
2,2, 3, 5, 0, 6,40.00,50.00,Monday
7,17.5
8,1.9
9,338.0
10,0.0
205,0.0
2,2, 3, 5, 0, 6,50.00,60.00,Monday
7,17.5
8,1.5
9,333.0
10,0.0
205,0.0
2,2, 3, 5, 0, 7, 0.00,10.00,Monday
7,17.4
8,1.8
9,333.0
10,0.0
205,0.0
2,2, 3, 5, 0, 7,10.00,20.00,Monday
7,17.2
8,2.1
9,325.0
10,0.0
205,0.0
2,2, 3, 5, 0, 7,20.00,30.00,Monday
7,17.6
8,1.6
9,328.0
10,0.0
205,0.0
2,2, 3, 5, 0, 7,30.00,40.00,Monday
7,17.3
8,1.8
9,333.0
10,0.0
205,0.0
2,2, 3, 5, 0, 7,40.00,50.00,Monday
7,17.1
8,2.5
9,341.0
10,0.0
205,0.0
2,2, 3, 5, 0, 7,50.00,60.00,Monday
7,17.2
8,2.9
9,351.0
10,0.0
205,0.0
2,2, 3, 5, 0, 8, 0.00,10.00,Monday
7,17.0
8,3.2
9,349.0
10,1.469
205,2.0694369043529046
2,2, 3, 5, 0, 8,10.00,20.00,Monday
7,17.0
8,2.8
9,344.0
10,8.77
205,11.53768032270202
2,2, 3, 5, 0, 8,20.00,30.00,Monday
7,17.0
8,2.8
9,280.0
10,18.63
205,32.06874719137959
2,2, 3, 5, 0, 8,30.00,40.00,Monday
7,17.2
8,2.8
9,144.0
10,28.32
205,60.48940286462344
2,2, 3, 5, 0, 8,40.00,50.00,Monday
7,17.3
8,2.0
9,340.0
10,36.75
205,93.48549130371714
2,2, 3, 5, 0, 8,50.00,60.00,Monday
7,17.7
8,1.8
9,342.0
10,44.6
205,128.11619083015765
2,2, 3, 5, 0, 9, 0.00,10.00,Monday
7,18.4
8,1.1
9,179.0
10,51.56
205,164.19409259222317
2,2, 3, 5, 0, 9,10.00,20.00,Monday
7,19.7
8,0.2
9,208.0
10,57.67
205,203.98316079141136
2,2, 3, 5, 0, 9,20.00,30.00,Monday
7,21.3
8,0.0
9,237.0
10,62.81
205,244.1246084794136
2,2, 3, 5, 0, 9,30.00,40.00,Monday
7,21.5
8,0.0
9,275.0
10,67.77
205,286.14478329536894
2,2, 3, 5, 0, 9,40.00,50.00,Monday
7,22.5
8,0.0
9,127.0
10,72.16
205,329.3456342910332
2,2, 3, 5, 0, 9,50.00,60.00,Monday
7,23.4
8,0.2
9,106.0
10,75.95
205,373.0233097709263
2,2, 3, 5, 0,10, 0.00,10.00,Monday
7,23.6
8,0.7
9,116.0
10,79.89
205,414.94491131795286
2,2, 3, 5, 0,10,10.00,20.00,Monday
7,24.3
8,0.9
9,145.0
10,83.0
205,456.7534713996063
2,2, 3, 5, 0,10,20.00,30.00,Monday
7,24.6
8,1.2
9,155.0
10,86.6
205,495.5029614308112
2,2, 3, 5, 0,10,30.00,40.00,Monday
7,24.5
8,1.8
9,167.0
10,89.0
205,542.8488809000204
2,2, 3, 5, 0,10,40.00,50.00,Monday
7,24.3
8,1.5
9,121.0
10,90.5
205,583.8190180579234
2,2, 3, 5, 0,10,50.00,60.00,Monday
7,24.8
8,1.6
9,81.0
10,92.1
205,613.6941895124435
2,2, 3, 5, 0,11, 0.00,10.00,Monday
7,24.7
8,1.4
9,170.0
10,94.8
205,639.8447295490588
2,2, 3, 5, 0,11,10.00,20.00,Monday
7,25.8
8,1.4
9,171.0
10,98.1
205,665.3933103551154
2,2, 3, 5, 0,11,20.00,30.00,Monday
7,24.5
8,2.1
9,153.0
10,100.1
205,688.395411299921
2,2, 3, 5, 0,11,30.00,40.00,Monday
7,25.5
8,1.9
9,183.0
10,101.6
205,709.6092201219166
2,2, 3, 5, 0,11,40.00,50.00,Monday
7,25.9
8,2.0
9,149.0
10,104.0
205,730.3957716322354
2,2, 3, 5, 0,11,50.00,60.00,Monday
7,25.7
8,2.1
9,155.0
10,107.3
205,750.7189264219656
2,2, 3, 5, 0,12, 0.00,10.00,Monday
7,26.2
8,2.5
9,165.0
10,110.3
205,769.3451313813129
2,2, 3, 5, 0,12,10.00,20.00,Monday
7,26.1
8,2.0
9,185.0
10,114.0
205,787.2437853993096
2,2, 3, 5, 0,12,20.00,30.00,Monday
7,26.3
8,1.9
9,181.0
10,115.6
205,801.5872147726496
2,2, 3, 5, 0,12,30.00,40.00,Monday
7,26.9
8,2.3
9,174.0
10,116.7
205,813.9505050484216
2,2, 3, 5, 0,12,40.00,50.00,Monday
7,26.5
8,1.3
9,207.0
10,117.6
205,824.6117666949596
2,2, 3, 5, 0,12,50.00,60.00,Monday
7,26.8
8,2.2
9,187.0
10,119.2
205,834.4520532432638
2,2, 3, 5, 0,13, 0.00,10.00,Monday
7,27.1
8,1.6
9,183.0
10,124.7
205,846.6553319733425
2,2, 3, 5, 0,13,10.00,20.00,Monday
7,27.4
8,2.0
9,178.0
10,127.7
205,854.808683118932
2,2, 3, 5, 0,13,20.00,30.00,Monday
7,27.5
8,2.3
9,221.0
10,134.7
205,865.4019108203395
2,2, 3, 5, 0,13,30.00,40.00,Monday
7,27.9
8,2.0
9,236.0
10,141.1
205,873.8282704152987
2,2, 3, 5, 0,13,40.00,50.00,Monday
7,28.2
8,1.3
9,148.0
10,146.7
205,879.8837787717555
2,2, 3, 5, 0,13,50.00,60.00,Monday
7,29.2
8,1.4
9,82.0
10,152.5
205,884.5676352130095
2,2, 3, 5, 0,14, 0.00,10.00,Monday
7,28.5
8,2.5
9,96.0
10,154.1
205,883.481941262078
2,2, 3, 5, 0,14,10.00,20.00,Monday
7,28.1
8,1.9
9,146.0
10,153.9
205,879.032079940441
2,2, 3, 5, 0,14,20.00,30.00,Monday
7,28.7
8,1.7
9,144.0
10,155.0
205,874.3262118924073
2,2, 3, 5, 0,14,30.00,40.00,Monday
7,29.1
8,2.3
9,144.0
10,155.8
205,867.7757933200312
2,2, 3, 5, 0,14,40.00,50.00,Monday
7,30.0
8,1.0
9,98.0
10,155.0
205,858.0951311029785
2,2, 3, 5, 0,14,50.00,60.00,Monday
7,29.1
8,1.5
9,156.0
10,153.5
205,846.2013437738208
2,2, 3, 5, 0,15, 0.00,10.00,Monday
7,30.1
8,2.4
9,203.0
10,152.5
205,833.3149658741771
2,2, 3, 5, 0,15,10.00,20.00,Monday
7,29.9
8,1.9
9,204.0
10,150.3
205,817.7592040637239
2,2, 3, 5, 0,15,20.00,30.00,Monday
7,30.3
8,1.5
9,150.0
10,148.8
205,801.4602249870336
2,2, 3, 5, 0,15,30.00,40.00,Monday
7,30.7
8,2.0
9,161.0
10,148.0
205,784.4470069419492
2,2, 3, 5, 0,15,40.00,50.00,Monday
7,30.4
8,2.1
9,170.0
10,143.9
205,762.7515378959528
2,2, 3, 5, 0,15,50.00,60.00,Monday
7,30.4
8,2.7
9,155.0
10,140.5
205,740.4084950881336
2,2, 3, 5, 0,16, 0.00,10.00,Monday
7,31.4
8,0.9
9,156.0
10,137.4
205,717.055421934117
2,2, 3, 5, 0,16,10.00,20.00,Monday
7,31.7
8,2.0
9,154.0
10,136.7
205,694.8325784967192
2,2, 3, 5, 0,16,20.00,30.00,Monday
7,31.6
8,2.7
9,200.0
10,137.4
205,672.7832208774886
2,2, 3, 5, 0,16,30.00,40.00,Monday
7,32.3
8,0.9
9,136.0
10,137.6
205,649.0531170724037
2,2, 3, 5, 0,16,40.00,50.00,Monday
7,32.8
8,1.5
9,141.0
10,138.5
205,624.8910222375773
2,2, 3, 5, 0,16,50.00,60.00,Monday
7,32.7
8,1.9
9,151.0
10,139.6
205,599.8485471706713
2,2, 3, 5, 0,17, 0.00,10.00,Monday
7,32.9
8,1.7
9,146.0
10,141.6
205,574.6804329260165
2,2, 3, 5, 0,17,10.00,20.00,Monday
7,32.6
8,2.3
9,120.0
10,144.4
205,549.3443789608506
2,2, 3, 5, 0,17,20.00,30.00,Monday
7,33.0
8,1.5
9,125.0
10,142.7
205,518.6021014845599
2,2, 3, 5, 0,17,30.00,40.00,Monday
7,33.2
8,2.1
9,128.0
10,144.8
205,490.819129418064
2,2, 3, 5, 0,17,40.00,50.00,Monday
7,33.1
8,2.1
9,114.0
10,153.5
205,468.8663575814889
2,2, 3, 5, 0,17,50.00,60.00,Monday
7,33.2
8,1.8
9,121.0
10,165.6
205,442.76571211996986
2,2, 3, 5, 0,18, 0.00,10.00,Monday
7,33.3
8,2.0
9,154.0
10,176.3
205,423.46788966162774
2,2, 3, 5, 0,18,10.00,20.00,Monday
7,32.9
8,1.9
9,169.0
10,188.8
205,398.90301410818313
2,2, 3, 5, 0,18,20.00,30.00,Monday
7,32.9
8,2.8
9,200.0
10,192.5
205,373.9108328486133
2,2, 3, 5, 0,18,30.00,40.00,Monday
7,32.0
8,2.6
9,195.0
10,166.2
205,317.5997166261019
2,2, 3, 5, 0,18,40.00,50.00,Monday
7,32.0
8,1.7
9,154.0
10,129.6
205,233.12940648696184
2,2, 3, 5, 0,18,50.00,60.00,Monday
7,31.7
8,2.6
9,146.0
10,101.1
205,162.22152006382166
2,2, 3, 5, 0,19, 0.00,10.00,Monday
7,31.0
8,2.2
9,168.0
10,73.9
205,102.61985114529651
2,2, 3, 5, 0,19,10.00,20.00,Monday
7,31.2
8,1.5
9,182.0
10,63.14
205,92.91043614621566
2,2, 3, 5, 0,19,20.00,30.00,Monday
7,31.1
8,1.8
9,174.0
10,53.85
205,63.09262565012375
2,2, 3, 5, 0,19,30.00,40.00,Monday
7,30.2
8,2.3
9,184.0
10,0.0
205,0.0
2,2, 3, 5, 0,19,40.00,50.00,Monday
7,30.0
8,2.0
9,155.0
10,0.0
205,0.0
2,2, 3, 5, 0,19,50.00,60.00,Monday
7,29.7
8,1.3
9,165.0
10,0.0
205,0.0
2,2, 3, 5, 0,20, 0.00,10.00,Monday
7,29.4
8,1.1
9,188.0
10,0.0
205,0.0
2,2, 3, 5, 0,20,10.00,20.00,Monday
7,29.1
8,0.4
9,178.0
10,0.0
205,0.0
2,2, 3, 5, 0,20,20.00,30.00,Monday
7,28.9
8,0.2
9,195.0
10,0.0
205,0.0
2,2, 3, 5, 0,20,30.00,40.00,Monday
7,28.7
8,0.0
9,213.0
10,0.0
205,0.0
2,2, 3, 5, 0,20,40.00,50.00,Monday
7,28.2
8,0.0
9,285.0
10,0.0
205,0.0
2,2, 3, 5, 0,20,50.00,60.00,Monday
7,27.8
8,0.8
9,320.0
10,0.0
205,0.0
2,2, 3, 5, 0,21, 0.00,10.00,Monday
7,27.2
8,1.9
9,326.0
10,0.0
205,0.0
2,2, 3, 5, 0,21,10.00,20.00,Monday
7,27.2
8,2.2
9,349.0
10,0.0
205,0.0
2,2, 3, 5, 0,21,20.00,30.00,Monday
7,25.8
8,2.9
9,349.0
10,0.0
205,0.0
2,2, 3, 5, 0,21,30.00,40.00,Monday
7,25.7
8,2.6
9,314.0
10,0.0
205,0.0
2,2, 3, 5, 0,21,40.00,50.00,Monday
7,25.6
8,2.1
9,249.0
10,0.0
205,0.0
2,2, 3, 5, 0,21,50.00,60.00,Monday
7,25.2
8,2.2
9,247.0
10,0.0
205,0.0
2,2, 3, 5, 0,22, 0.00,10.00,Monday
7,24.9
8,2.0
9,313.0
10,0.0
205,0.0
2,2, 3, 5, 0,22,10.00,20.00,Monday
7,24.9
8,1.7
9,55.0
10,0.0
205,0.0
2,2, 3, 5, 0,22,20.00,30.00,Monday
7,24.9
8,1.3
9,146.0
10,0.0
205,0.0
2,2, 3, 5, 0,22,30.00,40.00,Monday
7,24.6
8,1.4
9,217.0
10,0.0
205,0.0
2,2, 3, 5, 0,22,40.00,50.00,Monday
7,24.6
8,1.3
9,178.0
10,0.0
205,0.0
2,2, 3, 5, 0,22,50.00,60.00,Monday
7,24.5
8,0.8
9,248.0
10,0.0
205,0.0
2,2, 3, 5, 0,23, 0.00,10.00,Monday
7,24.0
8,1.4
9,119.0
10,0.0
205,0.0
2,2, 3, 5, 0,23,10.00,20.00,Monday
7,23.8
8,1.3
9,212.0
10,0.0
205,0.0
2,2, 3, 5, 0,23,20.00,30.00,Monday
7,23.9
8,0.3
9,266.0
10,0.0
205,0.0
2,2, 3, 5, 0,23,30.00,40.00,Monday
7,23.9
8,1.2
9,283.0
10,0.0
205,0.0
2,2, 3, 5, 0,23,40.00,50.00,Monday
7,23.8
8,0.5
9,272.0
10,0.0
205,0.0
2,2, 3, 5, 0,23,50.00,60.00,Monday
7,23.5
8,0.0
9,236.0
10,0.0
205,0.0
2,2, 3, 5, 0,24, 0.00,10.00,Monday
7,23.2
8,1.0
9,81.0
10,0.0
205,0.0
2,2, 3, 5, 0,24,10.00,20.00,Monday
7,23.3
8,0.9
9,162.0
10,0.0
205,0.0
2,2, 3, 5, 0,24,20.00,30.00,Monday
7,23.3
8,0.7
9,155.0
10,0.0
205,0.0
2,2, 3, 5, 0,24,30.00,40.00,Monday
7,22.8
8,0.4
9,226.0
10,0.0
205,0.0
2,2, 3, 5, 0,24,40.00,50.00,Monday
7,22.9
8,0.3
9,246.0
10,0.0
205,0.0
2,2, 3, 5, 0,24,50.00,60.00,Monday
7,22.8
8,1.2
9,208.0
10,0.0
205,0.0
2,3, 3, 6, 0, 1, 0.00,10.00,Tuesday
7,22.7
8,1.7
9,130.0
10,0.0
205,0.0
2,3, 3, 6, 0, 1,10.00,20.00,Tuesday
7,22.7
8,0.5
9,120.0
10,0.0
205,0.0
2,3, 3, 6, 0, 1,20.00,30.00,Tuesday
7,22.8
8,0.2
9,103.0
10,0.0
205,0.0
2,3, 3, 6, 0, 1,30.00,40.00,Tuesday
7,22.6
8,0.5
9,132.0
10,0.0
205,0.0
2,3, 3, 6, 0, 1,40.00,50.00,Tuesday
7,22.6
8,0.0
9,187.0
10,0.0
205,0.0
2,3, 3, 6, 0, 1,50.00,60.00,Tuesday
7,22.7
8,0.0
9,29.0
10,0.0
205,0.0
2,3, 3, 6, 0, 2, 0.00,10.00,Tuesday
7,22.4
8,1.0
9,181.0
10,0.0
205,0.0
2,3, 3, 6, 0, 2,10.00,20.00,Tuesday
7,22.1
8,1.7
9,213.0
10,0.0
205,0.0
2,3, 3, 6, 0, 2,20.00,30.00,Tuesday
7,21.2
8,2.2
9,273.0
10,0.0
205,0.0
2,3, 3, 6, 0, 2,30.00,40.00,Tuesday
7,21.1
8,2.1
9,331.0
10,0.0
205,0.0
2,3, 3, 6, 0, 2,40.00,50.00,Tuesday
7,21.4
8,2.3
9,336.0
10,0.0
205,0.0
2,3, 3, 6, 0, 2,50.00,60.00,Tuesday
7,21.3
8,2.3
9,337.0
10,0.0
205,0.0
2,3, 3, 6, 0, 3, 0.00,10.00,Tuesday
7,20.8
8,2.3
9,343.0
10,0.0
205,0.0
2,3, 3, 6, 0, 3,10.00,20.00,Tuesday
7,20.3
8,2.5
9,338.0
10,0.0
205,0.0
2,3, 3, 6, 0, 3,20.00,30.00,Tuesday
7,19.7
8,2.4
9,331.0
10,0.0
205,0.0
2,3, 3, 6, 0, 3,30.00,40.00,Tuesday
7,20.5
8,2.2
9,338.0
10,0.0
205,0.0
2,3, 3, 6, 0, 3,40.00,50.00,Tuesday
7,20.3
8,2.2
9,338.0
10,0.0
205,0.0
2,3, 3, 6, 0, 3,50.00,60.00,Tuesday
7,19.8
8,2.0
9,329.0
10,0.0
205,0.0
2,3, 3, 6, 0, 4, 0.00,10.00,Tuesday
7,19.7
8,1.9
9,331.0
10,0.0
205,0.0
2,3, 3, 6, 0, 4,10.00,20.00,Tuesday
7,19.7
8,2.1
9,336.0
10,0.0
205,0.0
2,3, 3, 6, 0, 4,20.00,30.00,Tuesday
7,19.5
8,2.3
9,350.0
10,0.0
205,0.0
2,3, 3, 6, 0, 4,30.00,40.00,Tuesday
7,19.3
8,2.1
9,354.0
10,0.0
205,0.0
2,3, 3, 6, 0, 4,40.00,50.00,Tuesday
7,19.2
8,1.7
9,276.0
10,0.0
205,0.0
2,3, 3, 6, 0, 4,50.00,60.00,Tuesday
7,19.1
8,1.5
9,333.0
10,0.0
205,0.0
2,3, 3, 6, 0, 5, 0.00,10.00,Tuesday
7,18.9
8,1.9
9,332.0
10,0.0
205,0.0
2,3, 3, 6, 0, 5,10.00,20.00,Tuesday
7,19.4
8,1.8
9,334.0
10,0.0
205,0.0
2,3, 3, 6, 0, 5,20.00,30.00,Tuesday
7,19.0
8,2.0
9,334.0
10,0.0
205,0.0
2,3, 3, 6, 0, 5,30.00,40.00,Tuesday
7,18.7
8,2.0
9,338.0
10,0.0
205,0.0
2,3, 3, 6, 0, 5,40.00,50.00,Tuesday
7,18.9
8,2.0
9,346.0
10,0.0
205,0.0
2,3, 3, 6, 0, 5,50.00,60.00,Tuesday
7,18.6
8,2.2
9,349.0
10,0.0
205,0.0
2,3, 3, 6, 0, 6, 0.00,10.00,Tuesday
7,18.4
8,2.3
9,41.0
10,0.0
205,0.0
2,3, 3, 6, 0, 6,10.00,20.00,Tuesday
7,18.7
8,2.3
9,22.0
10,0.0
205,0.0
2,3, 3, 6, 0, 6,20.00,30.00,Tuesday
7,18.9
8,1.8
9,23.0
10,0.0
205,0.0
2,3, 3, 6, 0, 6,30.00,40.00,Tuesday
7,19.0
8,1.6
9,14.0
10,0.0
205,0.0
2,3, 3, 6, 0, 6,40.00,50.00,Tuesday
7,19.1
8,1.5
9,144.0
10,0.0
205,0.0
2,3, 3, 6, 0, 6,50.00,60.00,Tuesday
7,19.1
8,1.7
9,345.0
10,0.0
205,0.0
2,3, 3, 6, 0, 7, 0.00,10.00,Tuesday
7,19.4
8,2.0
9,351.0
10,0.0
205,0.0
2,3, 3, 6, 0, 7,10.00,20.00,Tuesday
7,19.0
8,2.1
9,353.0
10,0.0
205,0.0
2,3, 3, 6, 0, 7,20.00,30.00,Tuesday
7,18.4
8,2.1
9,41.0
10,0.0
205,0.0
2,3, 3, 6, 0, 7,30.00,40.00,Tuesday
7,18.3
8,2.1
9,251.0
10,0.0
205,0.0
2,3, 3, 6, 0, 7,40.00,50.00,Tuesday
7,18.5
8,2.0
9,350.0
10,0.0
205,0.0
2,3, 3, 6, 0, 7,50.00,60.00,Tuesday
7,18.2
8,1.8
9,249.0
10,0.0
205,0.0
2,3, 3, 6, 0, 8, 0.00,10.00,Tuesday
7,18.2
8,2.1
9,313.0
10,1.756
205,1.9527336208631434
2,3, 3, 6, 0, 8,10.00,20.00,Tuesday
7,18.6
8,2.2
9,211.0
10,10.35
205,12.221028729600087
2,3, 3, 6, 0, 8,20.00,30.00,Tuesday
7,18.8
8,2.0
9,179.0
10,22.59
205,31.273018941462567
2,3, 3, 6, 0, 8,30.00,40.00,Tuesday
7,19.1
8,1.4
9,341.0
10,35.58
205,56.0952986337306
2,3, 3, 6, 0, 8,40.00,50.00,Tuesday
7,19.5
8,1.4
9,351.0
10,48.92
205,85.65367571774959
2,3, 3, 6, 0, 8,50.00,60.00,Tuesday
7,19.9
8,1.5
9,80.0
10,61.98
205,118.83054078454853
2,3, 3, 6, 0, 9, 0.00,10.00,Tuesday
7,20.3
8,1.0
9,116.0
10,74.48
205,152.87999438484093
2,3, 3, 6, 0, 9,10.00,20.00,Tuesday
7,20.9
8,0.6
9,109.0
10,85.2
205,189.84476893751122
2,3, 3, 6, 0, 9,20.00,30.00,Tuesday
7,21.9
8,0.0
9,79.0
10,94.7
205,226.89052126456897
2,3, 3, 6, 0, 9,30.00,40.00,Tuesday
7,22.8
8,0.6
9,102.0
10,104.0
205,266.9387574404241
2,3, 3, 6, 0, 9,40.00,50.00,Tuesday
7,23.1
8,0.7
9,162.0
10,111.1
205,305.0673070102568
2,3, 3, 6, 0, 9,50.00,60.00,Tuesday
7,23.4
8,1.2
9,184.0
10,118.4
205,342.7747536727867
2,3, 3, 6, 0,10, 0.00,10.00,Tuesday
7,23.8
8,0.9
9,170.0
10,125.6
205,383.1881653431168
2,3, 3, 6, 0,10,10.00,20.00,Tuesday
7,24.0
8,0.9
9,178.0
10,134.1
205,426.4994731938465
2,3, 3, 6, 0,10,20.00,30.00,Tuesday
7,24.6
8,1.4
9,204.0
10,142.2
205,468.79648043307003
2,3, 3, 6, 0,10,30.00,40.00,Tuesday
7,24.0
8,1.1
9,157.0
10,149.7
205,510.5857104602717
2,3, 3, 6, 0,10,40.00,50.00,Tuesday
7,25.0
8,1.3
9,195.0
10,161.0
205,543.3006775856318
2,3, 3, 6, 0,10,50.00,60.00,Tuesday
7,25.0
8,1.8
9,239.0
10,172.2
205,584.5593715836906
2,3, 3, 6, 0,11, 0.00,10.00,Tuesday
7,24.2
8,1.5
9,197.0
10,166.9
205,576.9601816031656
2,3, 3, 6, 0,11,10.00,20.00,Tuesday
7,24.9
8,1.6
9,198.0
10,169.5
205,645.1824099652592
2,3, 3, 6, 0,11,20.00,30.00,Tuesday
7,24.4
8,2.1
9,151.0
10,172.3
205,681.949844958865
2,3, 3, 6, 0,11,30.00,40.00,Tuesday
7,25.9
8,1.8
9,168.0
10,175.1
205,707.6672817323449
2,3, 3, 6, 0,11,40.00,50.00,Tuesday
7,26.1
8,1.5
9,182.0
10,176.9
205,739.2135873831253
2,3, 3, 6, 0,11,50.00,60.00,Tuesday
7,26.5
8,1.6
9,116.0
10,176.6
205,769.1607003847001
2,3, 3, 6, 0,12, 0.00,10.00,Tuesday
7,26.8
8,1.1
9,140.0
10,176.0
205,797.3012350596515
2,3, 3, 6, 0,12,10.00,20.00,Tuesday
7,27.7
8,1.2
9,95.0
10,175.7
205,823.4327395889329
2,3, 3, 6, 0,12,20.00,30.00,Tuesday
7,27.7
8,1.3
9,134.0
10,175.5
205,845.4490867688187
2,3, 3, 6, 0,12,30.00,40.00,Tuesday
7,26.8
8,1.0
9,187.0
10,177.7
205,860.4330977977047
2,3, 3, 6, 0,12,40.00,50.00,Tuesday
7,27.7
8,2.0
9,175.0
10,177.9
205,884.7811322491771
2,3, 3, 6, 0,12,50.00,60.00,Tuesday
7,27.1
8,1.9
9,176.0
10,174.8
205,889.9127252839667
2,3, 3, 6, 0,13, 0.00,10.00,Tuesday
7,29.1
8,1.0
9,178.0
10,171.4
205,893.208433029502
2,3, 3, 6, 0,13,10.00,20.00,Tuesday
7,28.9
8,1.5
9,98.0
10,167.6
205,894.5552200055456
2,3, 3, 6, 0,13,20.00,30.00,Tuesday
7,28.9
8,1.4
9,96.0
10,167.9
205,898.4431226370815
2,3, 3, 6, 0,13,30.00,40.00,Tuesday
7,28.7
8,2.1
9,91.0
10,171.4
205,903.9652563544627
2,3, 3, 6, 0,13,40.00,50.00,Tuesday
7,28.4
8,1.5
9,131.0
10,175.8
205,908.8174854330184
2,3, 3, 6, 0,13,50.00,60.00,Tuesday
7,29.5
8,2.6
9,125.0
10,192.1
205,923.9992111531458
2,3, 3, 6, 0,14, 0.00,10.00,Tuesday
7,29.3
8,1.5
9,229.0
10,211.6
205,909.1036520990237
2,3, 3, 6, 0,14,10.00,20.00,Tuesday
7,30.0
8,1.1
9,148.0